50
Properties=species:S:1:pos:R:3:move_mask:L:1:forces:R:3 energy=778477.9416289636 pbc="F F F"
H        2.09601748       0.86837495       2.15987908  F 1890538.52867614 -235235.73709316 -592484.17839941
Li       1.15997652       1.27368091       2.70819459  F      -2.02676108      -2.47859244       2.03429670
He       1.20525802       0.97921254       2.43903657  F -1890536.07985571  235239.71433872  592481.71111938
Li       0.89106011       1.60831304      -2.08272442  T       0.58081015      -0.87474079       0.07733580
He       4.31922962       0.32664183       1.23204211  T      -0.15825101      -0.03115613      -0.59129279
He       4.59394415      -0.72630866       2.22419039  T      -0.87900386       0.19302208      -0.17853813
He       4.61490532      -0.32682680       3.26697631  T       0.24313514       0.13988736      -0.86652534
H        5.33233929       0.69207757       0.13957382  T      -0.14515635       0.04499877      -0.01901260
H        1.57862471       1.54048257      -0.69942755  T       0.27958763      -0.40260149       0.22112942
Li       0.98910129       4.14895472      -1.07082294  T      -0.06307538      -0.46173407       0.84756999
He      -0.04965797       1.95237095       1.97110007  T       1.01506860       0.21562444      -0.35684052
Li       6.44725027       1.91325443       3.46191207  T      -0.53809528       0.41424495      -0.55639343
H        3.58875213       0.20406536       0.29036071  T      -1.56948497      -0.77764997      -0.03269103
He       1.03446794      -1.49848999       1.40861656  T       1.18611720       1.13895847      -0.09369823
He       1.29695270       0.06688162      -0.90536544  T       0.03447509       0.04316523       0.16805063
He       0.16294145       3.38246517       0.67924687  T      -0.36779490      -0.17286911      -0.27808196
He       2.76940159       1.13556182      -1.08548893  T       0.28062788      -1.40131423       0.11884176
H        4.94049196       2.97755707      -2.14299146  T       0.12576481       1.03397649       0.35344503
H        5.48643546       0.41282505       0.64313320  T      -0.50672488      -0.82714092      -0.55814774
H        5.26483819       1.56856627      -3.05084108  T       0.15767293       0.05387176       0.42690821
H        3.20077102       3.15108950       0.82921869  T      -1.83598648      -0.54737021       0.37026809
H        2.17839710       1.57055882       2.24316610  T      -0.50515745      -0.13104098      -1.33924087
H        2.29152665       3.82683704       0.62169163  T      -1.06467067      -0.24714783      -0.04938100
H        1.82743762       2.38565620       1.68679806  T       0.39724132       0.06641209       0.46184389
Li       5.69094770       4.18411056       2.67060659  T       0.06265459      -0.38122243      -0.20225859
Li       1.49598476      -0.34292771      -2.09699547  T       0.26335317      -0.55332051       0.40236337
H        4.04284724       4.25632347       0.53513692  T       0.18962071      -0.36624586       0.15490067
Li       2.19236312       3.06777607       2.50365753  T      -0.05920175       0.03174523       0.20927141
H        3.11469373       3.26947701       0.89680875  T       0.11551063      -0.21504863      -0.88192328
H        4.83883171       1.05764725      -0.49085446  T       1.35062882       0.32763132       1.05444314
Li       3.33800688       4.98969995       4.69591532  T      -0.01048607      -0.64777081      -0.76811771
H        5.40593047       4.20384842      -0.15546301  T      -0.19419878       0.22101059      -0.00448949
H        3.54347604      -1.05238088       2.22316200  T      -1.50075361      -0.50460833      -0.61014158
Li       5.21002241       1.35073605      -3.60178659  T      -0.41760923       0.40614740       0.51946180
H        2.19838790       1.44481694       2.29108228  T      -0.00906049       0.62456405       0.49375932
Li       3.24807607       0.73892492      -3.22823671  T      -0.10304437       0.00063972       0.11684596
He       2.99239142       3.02652023      -2.35154537  T      -0.02225591      -0.01171143      -0.00360834
H        2.23892074      -1.77413682       0.20096101  T       0.13060634      -0.04613021       0.06808911
Li       1.83153549      -0.97301746      -1.80731885  T       0.24377952       0.03734083       0.54233893
H        1.07159441       0.25033414      -0.53130554  T       0.43653780       0.63616214       0.42633579
He       3.76789187       3.71907450       0.35156664  T       0.42333453      -0.45107432      -0.17378346
H        5.54254607       0.18623289       0.56893515  T      -0.65540976      -0.22232456      -0.00467300
H        4.78458360       0.85901089      -0.57332597  T       0.24557472      -0.01567776       0.54082745
H        2.13487029      -1.40611291       1.19662102  T       0.00011757       0.00010050      -0.00007853
He       5.27397393       0.64424755       0.12894896  T       1.09569465       0.34616351      -0.86487124
H        2.23782631      -0.05042678      -1.27330194  T      -0.05821497       0.94227145       0.74969391
Li       1.65673099       0.40778586      -2.14493965  T      -0.18982828      -0.04585058       0.69866809
He       2.23599247       3.61634322      -0.18890714  T       0.75337002      -0.35633795      -0.67786303
H       -0.05834684       2.74039779      -1.18680135  T       0.54225671       1.31883970       0.37455755
Li       4.75103188       1.61176742      -3.57127011  T       0.27786464      -0.04334209       0.14768588
50
Properties=species:S:1:pos:R:3:move_mask:L:1:forces:R:3 energy=741346.2317943033 pbc="F F F"
H        2.09601748       0.86837495       2.15987908  F 1889661.78605267 -235131.08937937 -592205.71551838
Li       1.15997652       1.27368091       2.70819459  F       1.28379036      -0.16206992      -0.69369861
He       1.20525802       0.97921254       2.43903657  F -1889663.06228714  235131.22191604  592206.37904407
Li       3.18359291       4.45081648      -0.01170680  T       0.01822915       0.01051521       0.00003255
He       1.38649229       0.49782866       1.78298244  T       0.01169935       0.00833024      -0.00670334
He       2.81658815       1.67414792      -1.40770564  T      -0.00855660      -0.01328873       0.02427364
He       2.21143440       0.56444689      -2.27739130  T       0.00706690       0.00987835       0.01620469
H        4.29383996       0.28016687      -2.28337171  T       0.00398030      -0.00432935      -0.00321343
H        4.19629361       0.88081882       1.51391056  T       0.00735324       0.00452389      -0.04543526
Li       5.29576161       1.85623307       2.40706375  T      -0.01503456      -0.01501865      -0.02590546
He       3.76486093      -1.39386644       0.44495283  T       0.00734850       0.01940666      -0.00131948
Li       1.28880129       0.34551897      -3.49911133  T      -0.00020135      -0.01070244       0.01813333
H        2.36653598       2.79020434       0.06719246  T       0.01424212      -0.01894628       0.00860408
He       0.51984442       0.45211323       1.09413048  T       0.02252187       0.01062684      -0.00117722
He       3.76340871       2.12646900      -0.37784762  T      -0.00190507      -0.00708201      -0.00789110
He       6.65056169       0.05778939       0.75103811  T      -0.01672858      -0.00024065       0.00213709
He       3.35137220       2.13908784      -0.43193347  T       0.00779426       0.00239555      -0.01276471
H        5.47862454       1.30672399      -1.97411332  T      -0.01824798       0.00976087       0.05686059
H        1.73020767       0.62800244      -2.79905950  T       0.00816706       0.02016387       0.01593300
H        5.20916538       1.96618186      -2.95486964  T      -0.02281421       0.00400126       0.01354285
H        2.82298628      -0.09613681       1.82474116  T       0.00595597       0.01464838      -0.00393819
H        2.22238930      -0.72311662       0.71514968  T       0.00443822       0.03477828      -0.04426614
H        5.30202371       0.99220970       1.89360839  T      -0.02570633      -0.02752459      -0.03602146
H        4.43905251       1.34948879       2.53178325  T      -0.00037702      -0.00097772      -0.00793692
Li       2.85743814      -2.42596643       1.06888355  T       0.00778790       0.00375383      -0.00180278
Li       3.73230197       4.05227207       0.45919093  T      -0.02144271       0.01930376      -0.06351955
H        2.12538377      -2.12913773      -0.08149183  T       0.01448409       0.03185754       0.01889049
Li       3.32938425      -2.28511144       3.33723190  T       0.00122338       0.00877066      -0.00730952
H        2.97020455      -0.46336845      -0.85313066  T      -0.01616471       0.02030628      -0.00996665
H        5.26676698      -0.29165496      -1.78902202  T      -0.01429667       0.00247998       0.00084556
Li       5.90308600      -2.94600008       0.17237592  T      -0.00626185       0.01153816       0.00113500
H        4.36325941      -1.06567177      -0.65833516  T       0.01942312       0.05513373       0.00632318
H        1.13948486       0.62294775       0.78658912  T       0.01619832      -0.00050838      -0.01460836
Li       5.91882293      -0.20093830      -3.69860742  T      -0.00173741       0.00174955       0.01257820
H        3.69701149       1.01730864       1.52150410  T      -0.00528387      -0.01864622      -0.03923138
Li       3.99590018       4.84740541      -0.02191737  T      -0.01923382      -0.00559170      -0.01255511
He       5.17168575      -2.01277970       0.89302089  T      -0.01819042       0.01049227       0.01725329
H        0.31784793       2.57617674       0.35574881  T       0.01540802      -0.01031047       0.00457751
Li       3.15543568       4.46752045      -0.09747692  T      -0.00758227      -0.06215645      -0.02938837
H        3.50794211       3.37563685      -0.59773959  T       0.00353901      -0.00633792       0.01766753
He       3.42702586      -1.82304177       0.03844972  T       0.00934986       0.00101499       0.03906754
H        1.74373519       0.68841346      -1.77214065  T       0.01334018      -0.00669954      -0.00050967
H        5.63388433       0.23283908      -0.98286265  T      -0.01321412      -0.00085344       0.00858493
H        6.11003462      -3.22138622       0.73481301  T      -0.00311823       0.02262118      -0.01124879
He       2.31070470       0.68855086      -2.19748424  T      -0.00618402      -0.00031476       0.02833954
H        2.01950685       3.14043324      -0.01227244  T       0.02719688      -0.05216523       0.00708311
Li       3.39985973       4.06859904      -0.38509934  T       0.03213572      -0.00265803       0.08164858
He       6.74937610       0.24305301       0.98675517  T      -0.01517832      -0.01072746      -0.02271803
H        5.48540056       1.08747059       1.62237260  T      -0.00789059      -0.02489730      -0.00235503
Li       5.62582309       2.58738878      -2.58090875  T      -0.02108858      -0.00854078       0.04224257
50
Properties=species:S:1:pos:R:3:move_mask:L:1:forces:R:3 energy=789409.9039952457 pbc="F F F"
H        2.09601748       0.86837495       2.15987908  F 1871971.22623863 -232930.83744153 -586662.67269838
Li       1.15997652       1.27368091       2.70819459  F      -2.31089222       0.62565310       0.60421128
He       1.20525802       0.97921254       2.43903657  F -1871968.84142814  232930.22180044  586662.10428604
Li       1.26839973      -0.22764876      -2.06978451  T      -0.00281761      -0.01930486      -0.00557511
He       3.53282418      -2.47576420       1.35780484  T      -0.00318960       0.00173376      -0.00068468
He       2.86113665      -1.73002324       0.53421867  T      -0.00052218      -0.00079891      -0.00661338
He       3.50961284      -2.59590259       1.10335415  T      -0.00455168      -0.00625925      -0.00603878
H        3.32690178      -2.43635297       0.53515724  T      -0.00878374       0.00394694      -0.00262453
H        2.89969772       1.38579463      -0.35688099  T      -0.00538865       0.00085718      -0.00199522
Li       0.73902526       3.11239097       1.42854538  T      -0.00428948      -0.00871059      -0.00321182
He       2.11412375       0.68287152       2.68710259  T       0.00729822      -0.00020311      -0.00400115
Li       3.61567346      -3.71735802       1.82119672  T      -0.00017205      -0.00221573      -0.00382802
H        1.17061412      -0.77416576      -0.31827004  T       0.00866861      -0.00823534      -0.00036673
He       0.15658130      -2.04387864       2.51705249  T      -0.00226390      -0.00206934      -0.00492286
He       1.75887990      -0.36239581      -0.86349085  T      -0.00134299       0.00351980      -0.00227090
He      -0.11027592      -1.28857193       1.97702914  T       0.00001559      -0.00530795       0.00137454
He       2.24673498      -0.64183651      -0.77426993  T       0.00457251       0.00630421       0.00642901
H        2.69207439      -0.03978554       3.07800892  T       0.00041342      -0.00485566       0.00330837
H        3.90687806      -2.87385616       1.10230222  T      -0.00191752       0.00046125       0.00107247
H        5.07111890      -1.94736135      -1.67385562  T       0.00311418       0.00684132       0.00632936
H        5.05908130      -0.47128479      -0.74179052  T      -0.00447065       0.00112159       0.00016929
H        2.46847550      -0.43941642       3.51256960  T       0.00650076       0.00187644      -0.00024790
H        3.14228158       2.41031600       0.14011913  T       0.01136252      -0.00797719       0.00807950
H        4.61390944       0.61878270       1.05801087  T      -0.00629832       0.00038447       0.01101789
Li       3.24643104      -0.18513994       4.87762748  T       0.00201291      -0.00194777      -0.00062839
Li       1.16674138      -0.21095947      -2.33831447  T      -0.00262891       0.00968499      -0.00904306
H        5.79214298      -0.03183495       1.69995354  T       0.00625428      -0.00655057      -0.01078476
Li       4.09128276      -0.27886121       4.92201277  T      -0.00664330      -0.00416260       0.00364723
H        4.32509796      -2.20475126      -1.83389444  T      -0.00366092      -0.00339226      -0.00282932
H        5.64324068      -0.08452734       1.39972961  T      -0.00217340      -0.00444118      -0.00314020
Li       6.26955067       0.22282359       1.87790588  T      -0.01867274       0.02417774       0.01167357
H        4.32704197       0.79213728       0.80756807  T      -0.00322337      -0.00223732       0.00585114
H        1.06437290      -0.48507743       2.08607227  T      -0.00249128       0.00029057      -0.00599024
Li       1.99261945      -0.70584042      -1.94461693  T      -0.01069276       0.01333364      -0.00551447
H        2.48560404       0.15122795       3.36643388  T       0.00581634      -0.00068541      -0.00845826
Li       2.12103711      -0.37118171      -2.21126224  T       0.00423789      -0.01505237       0.00534467
He       3.65587230      -2.62162445       1.34091265  T      -0.00949078       0.01082821      -0.00046034
H       -0.30016162      -1.04998412       1.15556114  T       0.00639379       0.00144157      -0.01081036
Li       1.66450096       0.39573194      -1.94775608  T       0.00147833      -0.00451319       0.00298007
H        1.12428200      -0.21018162      -1.67786894  T      -0.00406781      -0.00603517      -0.00746806
He       5.34406518       0.30594972       1.50415953  T      -0.00342032      -0.00464426      -0.00738221
H        2.70444169      -2.69810300       1.09501231  T      -0.00504691      -0.00480964      -0.00197163
H        5.27122346      -2.84004207       2.43367498  T      -0.01098821       0.00666355       0.00648947
H        6.89770589      -5.77583188       0.70637583  T      -0.00023844       0.00043038       0.00025322
He       3.41823201      -2.65896762       1.10762466  T      -0.00004611      -0.00192486      -0.00261441
H        1.31731691      -0.61835447      -0.24378184  T       0.00039032       0.00571150      -0.00102893
Li       0.56365093      -0.27920008      -1.70547027  T      -0.00452758       0.00238175      -0.00395874
He       1.71446061       2.66945233       1.43451514  T      -0.00016233       0.00512557       0.00574112
H        4.87320659       0.37330297       0.87037693  T      -0.00402403       0.00573067       0.00569837
Li       4.44069795      -1.60900806      -2.76701629  T      -0.00424039       0.00347544       0.00320623
50
Properties=species:S:1:pos:R:3:move_mask:L:1:forces:R:3 energy=894117.7084613019 pbc="F F F"
H        2.09601748       0.86837495       2.15987908  F 1815028.57169673 -225844.85954178 -568816.72051084
Li       1.15997652       1.27368091       2.70819459  F      -0.43492569       0.21749368       0.16781982
He       1.20525802       0.97921254       2.43903657  F -1815028.13551978  225844.64415703  568816.55761242
Li       4.26488391       2.25950660      -1.02104242  T       0.01170622      -0.00388278       0.00846788
He       6.48765588      -1.74815770      -0.83462797  T       0.00002538      -0.00203893       0.00092175
He       2.96158611      -2.22274410      -0.00564945  T       0.00216563      -0.00267738      -0.00259447
He       2.63196331      -2.14707382       0.31845295  T       0.00124918       0.00204583      -0.00129911
H        3.44219195      -2.02632391      -0.22503669  T      -0.00263246      -0.00260378      -0.00225255
H        3.44720305       1.20432309      -0.20123393  T       0.00563637      -0.00182955       0.00353347
Li       7.40805689       0.47889729      -1.06334699  T      -0.00130008      -0.00488884      -0.00683957
He       1.62280121       0.90243003       2.18988117  T       0.00369120       0.00225799       0.00243449
Li       2.47528009      -2.91573874      -0.15695792  T       0.00319660       0.01244323       0.00236120
H        3.46212272       1.21433484      -0.17538171  T       0.00482356       0.00122260      -0.00100679
He       0.69715996      -0.56681074      -1.27222683  T      -0.00123076      -0.00438819       0.00142616
He       3.83859338       0.67698061      -0.84713299  T       0.00174629       0.00230731       0.00071210
He       6.95182893       1.27139395      -0.17374890  T       0.00327609       0.00151033      -0.00464165
He       3.93418451       1.36379119      -0.70687160  T       0.00104993      -0.00631876       0.00417077
H        4.98988339      -0.44369539       2.11011786  T      -0.00639317       0.00102232      -0.00412280
H        3.14840293      -1.93970021      -0.03558390  T      -0.00302343      -0.00189134      -0.00055291
H        6.17530031      -1.38604419      -0.70355536  T      -0.00475619       0.00400881      -0.00101788
H        6.12874691      -1.31438660      -0.71033814  T      -0.00019239       0.00545376      -0.00705200
H        3.46142367       1.22819981      -0.18727341  T       0.00936495      -0.00052316       0.00271415
H        4.53678988       2.73747268       2.48162403  T      -0.00054662      -0.00597002       0.00617945
H        3.20302633      -1.87600511       0.13291757  T      -0.00454342       0.00270044      -0.00148566
Li       6.98057994      -3.82195280       1.01069266  T      -0.00018997      -0.00129977       0.00201642
Li       3.81252243       1.91962954      -1.97782342  T      -0.02821863      -0.02751394      -0.03400624
H        5.03495386      -0.45234490       2.06563391  T      -0.00391644       0.00133765      -0.00500590
Li       2.46672253      -2.46583049       4.73892354  T      -0.00481777      -0.00274269       0.01601818
H        3.09574034      -1.98724390      -0.05538864  T       0.00310424       0.00184363      -0.00039402
H        4.98260147      -0.43047012       2.14557674  T      -0.00390681      -0.00269117      -0.00183022
Li       2.03803996      -0.43379661       3.30686618  T      -0.00072282       0.00063542       0.00469277
H        5.00836547      -0.51036618       2.17179591  T      -0.00111687      -0.00162712      -0.00283233
H        1.96377765       0.52716118       1.96550913  T       0.00174022      -0.01437053       0.00033616
Li       4.00421489       1.80989204      -1.69065867  T      -0.00320173      -0.00707805      -0.00170334
H        3.47630416       1.21145662      -0.18415008  T       0.00120335      -0.00103326      -0.00063308
Li       4.44615926       1.55901119      -1.45597629  T      -0.00447382       0.01052963      -0.00745608
He       5.51241649      -3.82888944       1.60908657  T       0.00063164      -0.00365776       0.00018596
H        0.64165993       0.02719470      -1.04955457  T      -0.00312524      -0.00216214      -0.00151947
Li       4.09114565       2.00561089      -1.18513929  T       0.01491158       0.02724653       0.01874774
H        4.27794869       1.00995358      -0.23138966  T      -0.00162904       0.00217205      -0.00331886
He       5.42602410      -0.41706294       2.14174115  T       0.00122630       0.00604988       0.00378412
H        5.01914534      -0.40030935       2.15869878  T      -0.00612135       0.00139367       0.01151410
H        5.80331184      -0.66241737      -1.31437902  T      -0.00071812      -0.00091637      -0.00526426
H        7.88171669      -2.28521737       0.54577763  T       0.00043361      -0.00033856       0.00038808
He       2.84393203      -2.21762562       0.03638209  T      -0.00667871       0.00133277      -0.00280320
H        3.84652710      -0.57283456      -2.82947236  T       0.00417628       0.00569395      -0.00232338
Li       4.41467095       1.71120457      -1.42690750  T       0.01758666       0.00039077       0.01374471
He       4.39296426       2.87834013       2.75200535  T       0.00178960       0.00339803       0.00313285
H        4.87700451      -0.43797038       2.12225279  T      -0.00244403       0.00484154      -0.00414332
Li       6.82907112      -0.75357044      -1.50619159  T      -0.00008628      -0.00150295      -0.00630483
50
Properties=species:S:1:pos:R:3:move_mask:L:1:forces:R:3 energy=812610.5092792318 pbc="F F F"
H        2.09601748       0.86837495       2.15987908  F 1861031.57528165 -231569.81785590 -583234.47544138
Li       1.15997652       1.27368091       2.70819459  F      -2.83509223       1.45419199       1.84102930
He       1.20525802       0.97921254       2.43903657  F -1861028.74838529  231568.36612515  583232.63093296
Li       3.90246875       2.42204599      -1.49731798  T      -0.01242108       0.00757624      -0.01355076
He       1.97481771      -0.93719296       1.63932674  T       0.00086704       0.00096179       0.00000064
He       1.81147774      -1.14118642      -0.85089389  T       0.00104596      -0.00008677       0.00085805
He       1.70434146      -1.16528846      -0.87590583  T       0.00068010       0.00097562      -0.00019351
H        2.42936979      -1.26095488      -1.37672688  T      -0.00004148      -0.00231209       0.00051411
H        2.88046413       2.07891471      -0.18456241  T       0.00130799       0.00017919      -0.00236286
Li       2.74328983       3.16780933       3.80376467  T      -0.00058661       0.00131454      -0.00022266
He       2.33657355       0.05278189       2.66529291  T       0.00041903       0.00090824      -0.00126259
Li       1.34322216      -1.88690667      -1.42281159  T       0.00175284      -0.00119389      -0.00155542
H        2.78860636       1.95626108      -0.31475529  T       0.00189942       0.00097017       0.00106210
He      -0.19719216       1.08011766       0.81563254  T       0.00049260      -0.00064106       0.00007451
He       3.47892388       0.34572123      -0.85659845  T      -0.00050922       0.00078741       0.00177601
He       0.85710210       1.96548441       0.69389102  T       0.00037833      -0.00188715       0.00086934
He       4.12704472       1.58665231      -0.31136390  T       0.00076668      -0.00069630      -0.00193008
H        2.36027220      -0.59363654       2.24669669  T       0.00033329      -0.00046803       0.00148473
H        2.44336238      -1.26198724      -1.31779861  T       0.00232925       0.00366883      -0.00085390
H        5.39390130      -1.38835561      -0.75036149  T      -0.00132098      -0.00019064      -0.00022554
H        5.21351706      -0.76212826       0.16780007  T      -0.00178206       0.00255105      -0.00120619
H        2.58055466      -0.70145729       2.29439239  T       0.00082058       0.00473022       0.00445620
H        4.61788910       2.38014080       2.85442117  T       0.00157325      -0.00301704       0.00165979
H        4.27129170       1.02816911       2.96083833  T      -0.00131262       0.00016288      -0.00044426
Li       6.35536383       0.05095916      -0.61837438  T      -0.00267722      -0.00022606       0.00006553
Li       4.30863413       2.83388513      -1.82365230  T      -0.00092929      -0.00239126       0.00702772
H        5.21959298      -0.61573853       0.73914009  T       0.00099968       0.00170566       0.00064159
Li       1.68391028       1.41970305       5.20450194  T       0.00069682      -0.00007533       0.00203916
H        5.09683733      -0.78334047       0.38685746  T      -0.00223924       0.00191722      -0.00067267
H        2.64369581       1.95538989      -0.17504084  T      -0.00050981      -0.00022034      -0.00204038
Li       6.19653376      -0.43808065       0.21136790  T       0.00098779       0.00196227      -0.00153477
H        3.37944528      -0.94967936       2.24736061  T      -0.00056551       0.00053463      -0.00104142
H        0.94405004       1.37859178       1.11169986  T      -0.00151805       0.00047819      -0.00188712
Li       3.37311561       2.81556687      -2.07004151  T       0.01077134      -0.00860029       0.01114180
H        2.12573983      -0.60300246       2.47245413  T      -0.00294316      -0.00284749      -0.00430878
Li       4.71558682       2.44402061      -1.18458574  T       0.00366677      -0.00048977       0.00389792
He       5.93422181       2.45789025      -0.19230061  T      -0.00037603      -0.00333798       0.00327104
H        0.86630463       1.83404721       0.20685759  T       0.00286038      -0.00046705       0.00232958
Li       4.35721544       2.65900569      -0.97267927  T       0.00020028      -0.00024143      -0.00386121
H        2.88872977      -0.81126793       3.30187279  T       0.00064437       0.00171975       0.00153785
He       4.97110843      -0.34731772       0.72884855  T      -0.00108931       0.00127668      -0.00123686
H        1.89484326      -0.60520706      -1.17436684  T       0.00262103       0.00399803       0.00203354
H        2.71412124       1.97656200      -0.18888629  T       0.00136749       0.00240479      -0.00232954
H        4.66112067       3.92335407      -2.59605045  T      -0.00128996      -0.00128982       0.00159483
He       2.01930107      -1.21532690      -0.95220113  T       0.00194895      -0.00349439       0.00113974
H        2.83689016       2.00693939      -0.16312619  T       0.00173318      -0.00351637      -0.00032308
Li       3.67782277       2.75819858      -1.22823112  T       0.00149361      -0.00029338      -0.00295898
He       3.68707565       2.34133273       2.77917833  T      -0.00111721       0.00033071       0.00027959
H        5.20007738       1.77774882       2.95840426  T       0.00001964      -0.00483024      -0.00113370
Li       6.31533077      -0.23000495      -0.52276413  T      -0.00325297      -0.00076118       0.00086004
50
Properties=species:S:1:pos:R:3:move_mask:L:1:forces:R:3 energy=790045.7056270273 pbc="F F F"
H        2.09601748       0.86837495       2.15987908  F 1871685.73650146 -232895.43077190 -586573.15305284
Li       1.15997652       1.27368091       2.70819459  F      -2.37668322       0.89835017       0.44855643
He       1.20525802       0.97921254       2.43903657  F -1871683.35161309  232894.49350826  586572.68728098
Li       1.81479192       1.02120976      -2.23583772  T       0.05704013      -0.01118769       0.01754016
He       3.00785439      -2.31849608       0.90622070  T      -0.00562755       0.00996910      -0.02106030
He       2.78529036      -1.31111128       0.00022068  T       0.00953614      -0.00317152       0.00440923
He       3.15411579      -2.39566724       0.36553056  T      -0.00969015       0.01345540       0.00277274
H        3.12130279      -2.03079766      -0.14099331  T      -0.00608499       0.00162133       0.00108801
H        3.35892266       1.88315041       0.11885724  T       0.00167129      -0.00927439      -0.00145586
Li       0.88175740       3.30952945       1.94540762  T       0.00778458      -0.00905012      -0.00440963
He       1.94610656       0.46130973       2.57776767  T      -0.00120263       0.00487959      -0.00353449
Li       3.02253056      -3.68255506       0.63328117  T      -0.01204034       0.02518648      -0.00506990
H        1.26711520       0.07848476      -0.69442725  T      -0.00663148       0.00786779       0.00617665
He      -0.22156465      -1.87249237       1.48706009  T      -0.00163229       0.00586507       0.01365274
He       1.94552744       0.48286809      -1.10352013  T      -0.00462921       0.00450194       0.00679579
He      -0.38365372      -0.86832913       1.14702865  T      -0.00195332      -0.00665743      -0.00205349
He       2.47354111       0.14745656      -1.05561968  T       0.01366548       0.00590572      -0.00979819
H        2.33329897      -0.36550329       2.90534404  T       0.00010962       0.00593212       0.00315159
H        3.57022354      -2.67481674       0.33778194  T       0.00931188       0.00580342       0.00502778
H        5.31539058      -1.21905745      -1.86372447  T      -0.01247239       0.01132776      -0.00906151
H        4.82887241       0.51041064       0.59168919  T      -0.00269660       0.01226433      -0.00397618
H        1.99763411      -0.80654396       3.14443564  T      -0.00580059       0.00262856       0.00676527